file 20244733 1506097838                                        
version 2
run ADD_ForwarGame-8-20170911-16:00:02-21567
attr configname ADD_ForwarGame
attr datetime 20170911-16:00:02
attr experiment ADD_ForwarGame
attr inifile omnetpp.ini
attr iterationvars ""
attr iterationvars2 $repetition=8
attr measurement ""
attr network RSUExampleScenario
attr processid 21567
attr repetition 8
attr replication #8
attr resultdir results
attr runnumber 8
attr seedset 8
vector 18  RSUExampleScenario.node[0].veinsmobility  posx  ETV
18	573304 9232 2 3243636 0.1 29.9 299 2249.3007872239 2353.676055755 678203.02899941 1538526098.8484
vector 19  RSUExampleScenario.node[0].veinsmobility  posy  ETV
19	564072 9232 2 3243636 0.1 29.9 299 998.50006426553 1280.8612073907 332718.18481963 373655513.53085
vector 31  RSUExampleScenario.node[1].veinsmobility  posx  ETV
31	626597 9247 2 3243636 0.1 29.9 299 1050.3627799918 1199.4206510778 336796.80292566 379996719.49527
vector 32  RSUExampleScenario.node[1].veinsmobility  posy  ETV
32	617358 9239 2 3243636 0.1 29.9 299 1329.1741565441 1361.628982966 401896.7488549 540232799.5189
vector 44  RSUExampleScenario.node[2].veinsmobility  posx  ETV
44	678769 9224 2 3243636 0.1 29.9 299 931.4786279436 1068.6416115721 307024.93788399 315859822.20371
vector 45  RSUExampleScenario.node[2].veinsmobility  posy  ETV
45	669532 9237 2 3243636 0.1 29.9 299 491.70458448361 553.81356214175 152186.65762754 77573915.922267
vector 57  RSUExampleScenario.node[3].veinsmobility  posx  ETV
57	731911 9232 2 3243636 0.1 29.9 299 1409.7622028559 1493.8147973097 428281.36829355 613708737.10029
vector 58  RSUExampleScenario.node[3].veinsmobility  posy  ETV
58	722692 9219 2 3243636 0.1 29.9 299 792.87596239534 885.05816796938 251702.24898898 212185742.93723
vector 70  RSUExampleScenario.node[4].veinsmobility  posx  ETV
70	789004 9238 2 3243636 0.1 29.9 299 1025.885764493 1244.8301654893 338405.88662654 384408226.05499
vector 71  RSUExampleScenario.node[4].veinsmobility  posy  ETV
71	779772 9232 2 3243636 0.1 29.9 299 494.99076979861 515.46102781693 150880.02793696 76149795.55643
vector 83  RSUExampleScenario.node[5].veinsmobility  posx  ETV
83	839151 9232 2 3243636 0.1 29.9 299 2552.7224573464 2704.459460211 776210.50774579 2015859411.5804
vector 84  RSUExampleScenario.node[5].veinsmobility  posy  ETV
84	829908 9243 2 3243636 0.1 29.9 299 1073.3446507154 1211.2495279984 345090.24586703 398862217.00825
vector 96  RSUExampleScenario.node[6].veinsmobility  posx  ETV
96	895736 9237 2 3243636 0.1 29.9 299 890.79054175524 1031.1829832356 281153.25147755 265140424.73041
vector 97  RSUExampleScenario.node[6].veinsmobility  posy  ETV
97	886499 9237 2 3243636 0.1 29.9 299 1243.3496132124 1247.8476441721 372631.84558913 464397084.46097
vector 109  RSUExampleScenario.node[7].veinsmobility  posx  ETV
109	950618 9527 2 3243636 0.1 29.9 299 2506.3772015756 2672.1379201687 782744.46391777 2050216608.8878
vector 110  RSUExampleScenario.node[7].veinsmobility  posy  ETV
110	941086 9532 2 3243636 0.1 29.9 299 1018.477698236 1028.7161120757 306110.35996959 313393545.79853
vector 122  RSUExampleScenario.node[8].veinsmobility  posx  ETV
122	1005085 9538 2 3243636 0.1 29.9 299 1474.3156464884 1732.3283949805 484220.42343316 786766850.37673
vector 123  RSUExampleScenario.node[8].veinsmobility  posy  ETV
123	995549 9536 2 3243636 0.1 29.9 299 611.55499015238 673.6738159607 196735.85262977 129500412.71082
vector 135  RSUExampleScenario.node[9].veinsmobility  posx  ETV
135	1108048 9547 2 3243636 0.1 29.9 299 2640.867515989 2728.5840356083 797949.9108487 2129726813.1596
vector 136  RSUExampleScenario.node[9].veinsmobility  posy  ETV
136	1098510 9538 2 3243636 0.1 29.9 299 745.47601364729 1036.4773293769 267173.18882794 242539018.89832
vector 148  RSUExampleScenario.node[10].veinsmobility  posx  ETV
148	1208968 9537 2 3243636 0.1 29.9 299 1460.7523452812 1604.6872087582 457620.77575895 701019371.11362
vector 149  RSUExampleScenario.node[10].veinsmobility  posy  ETV
149	1199457 9511 2 3243636 0.1 29.9 299 657.22369343008 682.11438918117 198647.46625614 131982663.56846
vector 161  RSUExampleScenario.node[11].veinsmobility  posx  ETV
161	1260836 9536 2 3243636 0.1 29.9 299 1485.5418667063 1567.2779359237 459125.07382664 705193740.30962
vector 162  RSUExampleScenario.node[11].veinsmobility  posy  ETV
162	1251297 9539 2 3243636 0.1 29.9 299 708.89026178521 744.7389834211 218308.21432767 159442272.17403
vector 174  RSUExampleScenario.node[12].veinsmobility  posx  ETV
174	1321454 9535 2 3243636 0.1 29.9 299 1041.1137183523 1114.8570882316 329032.65683132 362269092.20297
vector 175  RSUExampleScenario.node[12].veinsmobility  posy  ETV
175	1311917 9537 2 3243636 0.1 29.9 299 729.735764722 747.15826467771 219819.05022418 161622496.75522
vector 187  RSUExampleScenario.node[13].veinsmobility  posx  ETV
187	1385064 9532 2 3243636 0.1 29.9 299 2083.5820823138 2095.7939522839 624743.25738172 1305367827.1678
vector 188  RSUExampleScenario.node[13].veinsmobility  posy  ETV
188	1375529 9535 2 3243636 0.1 29.9 299 1132.3882491487 1293.1068696649 360889.79866799 436392735.1686
vector 200  RSUExampleScenario.node[14].veinsmobility  posx  ETV
200	1542260 9526 2 3243636 0.1 29.9 299 1658.3275669368 1736.702239397 514288.12054971 884668757.34314
vector 201  RSUExampleScenario.node[14].veinsmobility  posy  ETV
201	1532730 9530 2 3243636 0.1 29.9 299 553.33308322361 778.39490784877 193564.9844943 127620458.04879
vector 213  RSUExampleScenario.node[15].veinsmobility  posx  ETV
213	1598523 9534 2 3243636 0.1 29.9 299 1701.9035688721 1989.3194818111 572683.67891848 1099126952.4662
vector 214  RSUExampleScenario.node[15].veinsmobility  posy  ETV
214	1588996 9527 2 3243636 0.1 29.9 299 742.05966656481 810.35677105737 230355.93192987 177582651.64312
vector 226  RSUExampleScenario.node[16].veinsmobility  posx  ETV
226	1724622 9529 2 3243636 0.1 29.9 299 1621.6208589888 1705.5863659513 496043.11999655 823132973.65671
vector 227  RSUExampleScenario.node[16].veinsmobility  posy  ETV
227	1715079 9543 2 3243636 0.1 29.9 299 754.45350455466 809.89361549613 233693.45141878 182766070.7278
vector 239  RSUExampleScenario.node[17].veinsmobility  posx  ETV
239	1789842 9535 2 3243636 0.1 29.9 299 2812.9874141323 2946.1232536509 862599.90144866 2489186310.2773
vector 240  RSUExampleScenario.node[17].veinsmobility  posy  ETV
240	1780307 9535 2 3243636 0.1 29.9 299 678.33985249995 997.70051025753 253866.66512506 218702154.976
vector 252  RSUExampleScenario.node[18].veinsmobility  posx  ETV
252	1843511 9536 2 3243636 0.1 29.9 299 2388.7324947451 2494.4124313839 723349.51570455 1750321874.2789
vector 253  RSUExampleScenario.node[18].veinsmobility  posy  ETV
253	1833966 9545 2 3243636 0.1 29.9 299 728.00703266246 1040.3030689341 268435.80903712 244871863.47895
vector 265  RSUExampleScenario.node[19].veinsmobility  posx  ETV
265	1891461 9538 2 3243636 0.1 29.9 299 1852.4539791264 1861.3468983047 555242.08516941 1031084917.9523
vector 266  RSUExampleScenario.node[19].veinsmobility  posy  ETV
266	1881926 9535 2 3243636 0.1 29.9 299 781.22753743931 859.86140163889 245087.66070979 201057617.84421
vector 278  RSUExampleScenario.node[20].veinsmobility  posx  ETV
278	1958184 9535 2 3243636 0.1 29.9 299 1885.0613818304 1900.5688623626 564876.48669741 1067184995.8451
vector 279  RSUExampleScenario.node[20].veinsmobility  posy  ETV
279	1948651 9533 2 3243636 0.1 29.9 299 771.39215395602 897.78636269066 258305.07653491 223786191.45774
vector 291  RSUExampleScenario.node[21].veinsmobility  posx  ETV
291	2006346 9532 2 3243636 0.1 29.9 299 2506.2899612153 2531.6960451062 755770.81398393 1910346530.014
vector 292  RSUExampleScenario.node[21].veinsmobility  posy  ETV
292	1996818 9528 2 3243636 0.1 29.9 299 746.45292396032 863.89997057775 242830.09874538 197733066.85767
vector 304  RSUExampleScenario.node[22].veinsmobility  posx  ETV
304	2066045 9540 2 3243636 0.1 29.9 299 2570.0260813791 2742.5435544024 800104.73588708 2142095391.588
vector 305  RSUExampleScenario.node[22].veinsmobility  posy  ETV
305	2056510 9535 2 3243636 0.1 29.9 299 1002.906863346 1107.1716829969 321791.63858799 346526383.18179
vector 317  RSUExampleScenario.node[23].veinsmobility  posx  ETV
317	2123953 9539 2 3243636 0.1 29.9 299 2794.7098567592 2813.0639992854 839363.56616964 2356305640.26
vector 318  RSUExampleScenario.node[23].veinsmobility  posy  ETV
318	2114416 9537 2 3243636 0.1 29.9 299 1131.8794750958 1296.2737869293 354029.49458747 420324412.36
vector 330  RSUExampleScenario.node[24].veinsmobility  posx  ETV
330	2182894 9540 2 3243636 0.1 29.9 299 2785.7650164618 3013.2673757102 861933.68939914 2486751232.9753
vector 331  RSUExampleScenario.node[24].veinsmobility  posy  ETV
331	2173361 9533 2 3243636 0.1 29.9 299 576.54644176136 666.04557030915 183475.82518622 112822245.77176
vector 343  RSUExampleScenario.node[25].veinsmobility  posx  ETV
343	2235856 9531 2 3243636 0.1 29.9 299 1685.1468896959 1769.843097166 512774.18518299 879607911.12009
vector 344  RSUExampleScenario.node[25].veinsmobility  posy  ETV
344	2226327 9529 2 3243636 0.1 29.9 299 965.47220061433 1206.4732243191 344026.97255948 397501985.19056
vector 356  RSUExampleScenario.node[26].veinsmobility  posx  ETV
356	2288036 9515 2 3243636 0.1 29.9 299 1981.2720912593 2206.1240290707 644192.92644993 1389264607.29
vector 357  RSUExampleScenario.node[26].veinsmobility  posy  ETV
357	2278501 9535 2 3243636 0.1 29.9 299 604.26500331114 826.22952380952 217156.87057916 158774732.91467
vector 369  RSUExampleScenario.node[27].veinsmobility  posx  ETV
369	2336981 9532 2 3243636 0.1 29.9 299 1459.3030830144 1562.7789612333 446066.29034531 665843303.17632
vector 370  RSUExampleScenario.node[27].veinsmobility  posy  ETV
370	2327443 9538 2 3243636 0.1 29.9 299 952.36597751322 1042.1800963442 293245.07097192 287829511.19355
vector 382  RSUExampleScenario.node[28].veinsmobility  posx  ETV
382	2528982 9534 2 3243636 0.1 29.9 299 2039.8255940401 2392.8493165902 668608.22108261 1498753234.7284
vector 383  RSUExampleScenario.node[28].veinsmobility  posy  ETV
383	2519447 9535 2 3243636 0.1 29.9 299 940.45911446076 1024.8820140063 295349.66612693 291951031.27733
vector 395  RSUExampleScenario.node[29].veinsmobility  posx  ETV
395	2591764 9533 2 3243636 0.1 29.9 299 2399.3889017341 2401.188452298 717727.15539663 1722850540.9421
vector 396  RSUExampleScenario.node[29].veinsmobility  posy  ETV
396	2582229 9535 2 3243636 0.1 29.9 299 744.92980732177 1022.2593785865 273485.47574883 253605542.06629
vector 408  RSUExampleScenario.node[30].veinsmobility  posx  ETV
408	2647932 9528 2 3243636 0.1 29.9 299 2106.6295988899 2201.1028738871 636680.32478273 1356039671.9095
vector 409  RSUExampleScenario.node[30].veinsmobility  posy  ETV
409	2638413 9519 2 3243636 0.1 29.9 299 577.77720713873 689.26256404025 187258.42682789 117973434.1085
vector 421  RSUExampleScenario.node[31].veinsmobility  posx  ETV
421	2718791 9534 2 3243636 0.1 29.9 299 1655.3661616494 1698.8695794633 505934.38103064 856138732.46856
vector 422  RSUExampleScenario.node[31].veinsmobility  posy  ETV
422	2709252 9539 2 3243636 0.1 29.9 299 1290.7335602154 1290.9713683866 385940.05545478 498159621.64746
vector 434  RSUExampleScenario.node[32].veinsmobility  posx  ETV
434	2777941 9546 2 3243636 0.1 29.9 299 2357.3635764523 2367.3512589976 705102.66041202 1662776723.4789
vector 435  RSUExampleScenario.node[32].veinsmobility  posy  ETV
435	2768408 9533 2 3243636 0.1 29.9 299 1271.9501341447 1275.8184205191 381372.51296218 486438345.93922
vector 447  RSUExampleScenario.node[33].veinsmobility  posx  ETV
447	2827707 9534 2 3243636 0.1 29.9 299 888.26627557903 967.40424387415 277158.13886481 257075346.0631
vector 448  RSUExampleScenario.node[33].veinsmobility  posy  ETV
448	2818178 9529 2 3243636 0.1 29.9 299 1162.0593317866 1164.3005185489 347776.42953341 404509966.9398
vector 460  RSUExampleScenario.node[34].veinsmobility  posx  ETV
460	2886350 9537 2 3243636 0.1 29.9 299 1278.1299624098 1374.6096412202 402608.23057351 542439837.37711
vector 461  RSUExampleScenario.node[34].veinsmobility  posy  ETV
461	2876816 9534 2 3243636 0.1 29.9 299 1067.7542580982 1183.6241103474 343961.93709456 396191893.48765
vector 473  RSUExampleScenario.node[35].veinsmobility  posx  ETV
473	2948175 9532 2 3243636 0.1 29.9 299 855.08686621465 885.86663697993 260617.73393634 227193085.18864
vector 474  RSUExampleScenario.node[35].veinsmobility  posy  ETV
474	2938648 9527 2 3243636 0.1 29.9 299 765.22703176384 1237.925592184 306118.51863244 320835729.83177
vector 486  RSUExampleScenario.node[36].veinsmobility  posx  ETV
486	3007373 9535 2 3243636 0.1 29.9 299 2464.4399540452 2564.5717730521 761826.4229656 1941248251.5106
vector 487  RSUExampleScenario.node[36].veinsmobility  posy  ETV
487	2997841 9532 2 3243636 0.1 29.9 299 1040.9897906239 1203.6218651807 329410.27181054 363799040.77936
vector 499  RSUExampleScenario.node[37].veinsmobility  posx  ETV
499	3069316 9528 2 3243636 0.1 29.9 299 1403.2805368649 1619.6964260051 437589.18914263 641874888.06645
vector 500  RSUExampleScenario.node[37].veinsmobility  posy  ETV
500	3059781 9535 2 3243636 0.1 29.9 299 792.87244313972 861.80685141159 245490.66108884 201669062.43228
vector 512  RSUExampleScenario.node[38].veinsmobility  posx  ETV
512	3125070 9529 2 3243636 0.1 29.9 299 2396.8301049383 2400.528470198 717220.26506086 1720418407.0516
vector 513  RSUExampleScenario.node[38].veinsmobility  posy  ETV
513	3115530 9540 2 3243636 0.1 29.9 299 450.73489886072 688.64409954973 157349.05496552 84141094.498511
vector 525  RSUExampleScenario.node[39].veinsmobility  posx  ETV
525	3172885 9530 2 3243636 0.1 29.9 299 1775.293168317 1869.4545273866 543061.74747996 986648927.41211
vector 526  RSUExampleScenario.node[39].veinsmobility  posy  ETV
526	3163349 9536 2 3243636 0.1 29.9 299 1116.9765969647 1156.6567469683 338156.66154401 382491412.0661
vector 538  RSUExampleScenario.node[40].veinsmobility  posx  ETV
538	3278254 9537 2 3243636 0.1 29.9 299 1043.3038612971 1115.7813116814 323025.15766445 349117935.04526
vector 539  RSUExampleScenario.node[40].veinsmobility  posy  ETV
539	3268735 9519 2 3243636 0.1 29.9 299 1149.2970930939 1167.7227601431 345386.96978724 398982839.79944
vector 551  RSUExampleScenario.node[41].veinsmobility  posx  ETV
551	3433486 9529 2 3243636 0.1 29.9 299 1961.7379884648 2026.4077715451 594949.28023311 1183936877.8318
vector 552  RSUExampleScenario.node[41].veinsmobility  posy  ETV
552	3423945 9541 2 3243636 0.1 29.9 299 742.04527602563 818.23490321159 234604.03087435 184272413.67127
vector 564  RSUExampleScenario.node[42].veinsmobility  posx  ETV
564	3491965 9539 2 3243636 0.1 29.9 299 999.87553891775 1179.9312669007 318416.78100418 340317093.6202
vector 565  RSUExampleScenario.node[42].veinsmobility  posy  ETV
565	3482435 9530 2 3243636 0.1 29.9 299 745.70819651231 991.07166026227 266125.71995393 239406186.30347
vector 577  RSUExampleScenario.node[43].veinsmobility  posx  ETV
577	3540651 9535 2 3243636 0.1 29.9 299 2089.9020906706 2101.6446996894 625907.8164273 1310237943.409
vector 578  RSUExampleScenario.node[43].veinsmobility  posy  ETV
578	3531117 9534 2 3243636 0.1 29.9 299 508.02443449277 659.89059376793 174970.95721445 103048428.99522
vector 590  RSUExampleScenario.node[44].veinsmobility  posx  ETV
590	3593336 9539 2 3243636 0.1 29.9 299 1289.4558188219 1352.3461087129 391793.73479813 513453494.27523
vector 591  RSUExampleScenario.node[44].veinsmobility  posy  ETV
591	3583788 9548 2 3243636 0.1 29.9 299 1299.0867184114 1558.9772215261 422880.40945675 600623272.09653
vector 603  RSUExampleScenario.node[45].veinsmobility  posx  ETV
603	3657334 9531 2 3243636 0.1 29.9 299 839.27392118651 870.83632436295 254655.46670097 216917931.11932
vector 604  RSUExampleScenario.node[45].veinsmobility  posy  ETV
604	3647805 9529 2 3243636 0.1 29.9 299 530.95568638304 1065.1191506161 224811.19709919 177627474.36924
vector 616  RSUExampleScenario.node[46].veinsmobility  posx  ETV
616	3718734 9529 2 3243636 0.1 29.9 299 1712.9610930551 1864.4253055516 531571.59066159 945583434.1207
vector 617  RSUExampleScenario.node[46].veinsmobility  posy  ETV
617	3709195 9539 2 3243636 0.1 29.9 299 1270.3426679562 1286.6989048181 382525.96616351 489395950.28121
vector 629  RSUExampleScenario.node[47].veinsmobility  posx  ETV
629	3766489 9532 2 3243636 0.1 29.9 299 2673.5201304086 2742.5070540663 813000.28156924 2210839776.653
vector 630  RSUExampleScenario.node[47].veinsmobility  posy  ETV
630	3756973 9516 2 3243636 0.1 29.9 299 1313.8750519058 1408.3295957856 410220.82128084 562960926.89537
vector 642  RSUExampleScenario.node[48].veinsmobility  posx  ETV
642	3830616 9529 2 3243636 0.1 29.9 299 2086.8806922216 2097.7762324504 625767.27558137 1309650965.2147
vector 643  RSUExampleScenario.node[48].veinsmobility  posy  ETV
643	3821082 9534 2 3243636 0.1 29.9 299 964.15791721157 1284.0522329579 337153.51726914 383586655.91694
vector 655  RSUExampleScenario.node[49].veinsmobility  posx  ETV
655	3940609 9531 2 3243636 0.1 29.9 299 2040.7921917306 2078.9913077275 612741.68750331 1255728880.1733
vector 656  RSUExampleScenario.node[49].veinsmobility  posy  ETV
656	3931071 9538 2 3243636 0.1 29.9 299 988.10283355196 1093.3207233175 312038.66385824 326105748.17397
vector 668  RSUExampleScenario.node[50].veinsmobility  posx  ETV
668	4100929 9535 2 3243636 0.1 29.9 299 2595.6058728917 2697.2693142617 789768.52662388 2086315683.1675
vector 669  RSUExampleScenario.node[50].veinsmobility  posy  ETV
669	4091394 9535 2 3243636 0.1 29.9 299 633.46751547909 753.03550994946 201122.99858347 135604268.96863
vector 681  RSUExampleScenario.node[51].veinsmobility  posx  ETV
681	4159107 9539 2 3243636 0.1 29.9 299 2207.5021622668 2263.5230351007 672930.62076176 1514583179.2025
vector 682  RSUExampleScenario.node[51].veinsmobility  posy  ETV
682	4149581 9526 2 3243636 0.1 29.9 299 1001.3673317652 1293.6599947271 339956.23113298 390570141.59089
vector 694  RSUExampleScenario.node[52].veinsmobility  posx  ETV
694	4255667 9524 2 3243636 0.1 29.9 299 1375.0682110105 1448.97655115 420618.35234731 591826026.00382
vector 695  RSUExampleScenario.node[52].veinsmobility  posy  ETV
695	4246129 9538 2 3243636 0.1 29.9 299 919.19144622923 983.50548900995 287600.94986193 276773600.05867
vector 707  RSUExampleScenario.node[53].veinsmobility  posx  ETV
707	4366341 9523 2 3243636 0.1 29.9 299 1681.915555908 1734.4188861218 507136.59590029 860226816.67572
vector 708  RSUExampleScenario.node[53].veinsmobility  posy  ETV
708	4356815 9526 2 3243636 0.1 29.9 299 888.26850493756 1095.6689318096 308226.92464601 319502655.28161
vector 720  RSUExampleScenario.node[54].veinsmobility  posx  ETV
720	4414743 9545 2 3243636 0.1 29.9 299 1375.8192615015 1452.9667213048 420101.8061008 590382577.47557
vector 721  RSUExampleScenario.node[54].veinsmobility  posy  ETV
721	4405205 9538 2 3243636 0.1 29.9 299 988.47092581884 1052.9969884241 308204.6058349 317863953.85036
vector 733  RSUExampleScenario.node[55].veinsmobility  posx  ETV
733	4477789 9525 2 3243636 0.1 29.9 299 1360.2667667335 1377.6129383117 409365.59945063 560476884.77085
vector 734  RSUExampleScenario.node[55].veinsmobility  posy  ETV
734	4468258 9531 2 3243636 0.1 29.9 299 887.24823914279 1207.9965584416 319168.3413895 343403001.8813
vector 746  RSUExampleScenario.node[56].veinsmobility  posx  ETV
746	4536777 9530 2 3243636 0.1 29.9 299 1712.4343949226 1852.9606463987 526142.79887955 926494034.89474
vector 747  RSUExampleScenario.node[56].veinsmobility  posy  ETV
747	4527234 9543 2 3243636 0.1 29.9 299 579.73172411458 802.86563728974 210038.02829683 149714834.66398
vector 759  RSUExampleScenario.node[57].veinsmobility  posx  ETV
759	4645958 9540 2 3243636 0.1 29.9 299 2702.4573402256 2808.2006192167 828829.7129208 2297828092.659
vector 760  RSUExampleScenario.node[57].veinsmobility  posy  ETV
760	4636421 9537 2 3243636 0.1 29.9 299 564.36496488702 683.10045112782 189036.84122727 120213385.2418
vector 772  RSUExampleScenario.node[58].veinsmobility  posx  ETV
772	4697591 9539 2 3243636 0.1 29.9 299 1473.6255180348 1610.8371619242 462501.45860437 716004595.64895
vector 773  RSUExampleScenario.node[58].veinsmobility  posy  ETV
773	4688054 9537 2 3243636 0.1 29.9 299 658.48454548663 674.0797644525 199414.10668402 133001908.61068
vector 785  RSUExampleScenario.node[59].veinsmobility  posx  ETV
785	4853444 9536 2 3243636 0.1 29.9 299 2121.8855851064 2239.8310117836 655194.31451564 1436170709.6851
vector 786  RSUExampleScenario.node[59].veinsmobility  posy  ETV
786	4843901 9543 2 3243636 0.1 29.9 299 511.91255319149 716.76323406946 189111.37607571 121555495.63099
vector 798  RSUExampleScenario.node[60].veinsmobility  posx  ETV
798	4917549 9541 2 3243636 0.1 29.9 299 1362.2644090667 1367.5790671552 408158.77076762 557169740.69613
vector 799  RSUExampleScenario.node[60].veinsmobility  posy  ETV
799	4908018 9531 2 3243636 0.1 29.9 299 992.52401640439 1053.2298152771 311418.06419324 324468152.13521
vector 811  RSUExampleScenario.node[61].veinsmobility  posx  ETV
811	4981494 9532 2 3243636 0.1 29.9 299 1364.9389023998 1554.9728896934 426871.41227401 611000032.97069
vector 812  RSUExampleScenario.node[61].veinsmobility  posy  ETV
812	4971966 9528 2 3243636 0.1 29.9 299 844.02542074851 899.33232928006 263381.49815656 232140933.29893
vector 824  RSUExampleScenario.node[62].veinsmobility  posx  ETV
824	5150491 9538 2 3243636 0.1 29.9 299 2227.3121291789 2376.7648711053 700012.96222779 1639360950.6952
vector 825  RSUExampleScenario.node[62].veinsmobility  posy  ETV
825	5140959 9532 2 3243636 0.1 29.9 299 985.7309546905 1245.0093388185 326346.80593768 358756511.2788
vector 837  RSUExampleScenario.node[63].veinsmobility  posx  ETV
837	5281170 9536 2 3243636 0.1 29.9 299 1891.5934052364 2247.1846569188 613068.1327405 1260712127.1743
vector 838  RSUExampleScenario.node[63].veinsmobility  posy  ETV
838	5271634 9536 2 3243636 0.1 29.9 299 907.16047280853 993.88698076089 282948.46339534 267977967.28782
vector 850  RSUExampleScenario.node[64].veinsmobility  posx  ETV
850	5353280 9539 2 3243636 0.1 29.9 299 1503.7853637312 1766.7245529787 477839.25748003 765608281.95816
vector 851  RSUExampleScenario.node[64].veinsmobility  posy  ETV
851	5343750 9530 2 3243636 0.1 29.9 299 810.0707335415 875.60189067925 249437.61213635 208215524.10625
vector 863  RSUExampleScenario.node[65].veinsmobility  posx  ETV
863	5415043 9527 2 3243636 0.1 29.9 299 2174.9649373565 2344.9601184829 675064.86832258 1525369588.1798
vector 864  RSUExampleScenario.node[65].veinsmobility  posy  ETV
864	5405518 9525 2 3243636 0.1 29.9 299 1284.5399810427 1321.1698505504 388142.83333363 503918550.59508
vector 876  RSUExampleScenario.node[66].veinsmobility  posx  ETV
876	5520824 9545 2 3243636 0.1 29.9 299 1679.3491624106 1733.4117005835 514234.27374032 884474306.19988
vector 877  RSUExampleScenario.node[66].veinsmobility  posy  ETV
877	5511287 9537 2 3243636 0.1 29.9 299 558.58217568948 653.95901846316 182766.3994575 112145913.0708
vector 889  RSUExampleScenario.node[67].veinsmobility  posx  ETV
889	5593021 9524 2 3243636 0.1 29.9 299 1849.1054960026 2140.2198678998 585730.17464896 1150003237.0674
vector 890  RSUExampleScenario.node[67].veinsmobility  posy  ETV
890	5583490 9531 2 3243636 0.1 29.9 299 893.75609477267 968.42853904769 276013.00278348 254962715.66372
vector 902  RSUExampleScenario.node[68].veinsmobility  posx  ETV
902	5662290 9537 2 3243636 0.1 29.9 299 2125.2303632973 2399.0170724526 687516.4323354 1583069365.1987
vector 903  RSUExampleScenario.node[68].veinsmobility  posy  ETV
903	5652753 9537 2 3243636 0.1 29.9 299 961.50429442942 1029.236878603 300130.66997272 301400925.54777
vector 915  RSUExampleScenario.node[69].veinsmobility  posx  ETV
915	5775760 9529 2 3243636 0.1 29.9 299 2421.4540601002 2583.4446271461 750022.41231542 1882313926.4919
vector 916  RSUExampleScenario.node[69].veinsmobility  posy  ETV
916	5766226 9534 2 3243636 0.1 29.9 299 213.64095480123 549.79097958267 112339.26023934 47026029.97781
vector 928  RSUExampleScenario.node[70].veinsmobility  posx  ETV
928	5838882 9541 2 3243636 0.1 29.9 299 1386.1861355824 1448.2235638593 420657.71522877 591866077.10831
vector 929  RSUExampleScenario.node[70].veinsmobility  posy  ETV
929	5829351 9531 2 3243636 0.1 29.9 299 1286.6108899956 1592.1094485402 429409.21399017 620117294.05584
vector 941  RSUExampleScenario.node[71].veinsmobility  posx  ETV
941	5896330 9532 2 3243636 0.1 29.9 299 1304.2150461675 1316.5003448492 391623.86071355 512944482.43617
vector 942  RSUExampleScenario.node[71].veinsmobility  posy  ETV
942	5886793 9537 2 3243636 0.1 29.9 299 890.01256074146 1066.048243972 295321.02661277 292476053.66977
vector 954  RSUExampleScenario.node[72].veinsmobility  posx  ETV
954	5954713 9529 2 3243636 0.1 29.9 299 1187.2762046894 1230.9074360091 363069.9831359 440942694.64938
vector 955  RSUExampleScenario.node[72].veinsmobility  posy  ETV
955	5945182 9531 2 3243636 0.1 29.9 299 862.66069960212 948.32448977216 272437.25803274 248413749.18087
vector 967  RSUExampleScenario.node[73].veinsmobility  posx  ETV
967	6019491 9533 2 3243636 0.1 29.9 299 2256.7692366271 2461.3437351026 691159.08890465 1598923307.1026
vector 968  RSUExampleScenario.node[73].veinsmobility  posy  ETV
968	6009943 9548 2 3243636 0.1 29.9 299 998.54908273873 1112.5896264724 310645.52952104 323121693.19184
vector 980  RSUExampleScenario.node[74].veinsmobility  posx  ETV
980	6083260 9540 2 3243636 0.1 29.9 299 1377.5330010209 1578.032065009 427206.06006952 611570695.64387
vector 981  RSUExampleScenario.node[74].veinsmobility  posy  ETV
981	6073724 9536 2 3243636 0.1 29.9 299 1246.2839987466 1289.3977792226 382090.87132842 488327759.70827
vector 993  RSUExampleScenario.node[75].veinsmobility  posx  ETV
993	6189761 9542 2 3243636 0.1 29.9 299 2352.6688997018 2416.5095949282 712496.98392941 1697933679.596
vector 994  RSUExampleScenario.node[75].veinsmobility  posy  ETV
994	6180220 9541 2 3243636 0.1 29.9 299 1250.9876745001 1578.9612917034 426560.79161038 612004902.39504
vector 1006  RSUExampleScenario.node[76].veinsmobility  posx  ETV
1006	6244915 9831 2 3243636 0.1 29.9 299 2235.8896156823 2379.8650518423 683221.2079766 1561993382.6281
vector 1007  RSUExampleScenario.node[76].veinsmobility  posy  ETV
1007	6235077 9838 2 3243636 0.1 29.9 299 603.08198523003 706.43102630192 190384.3450033 121652658.17053
vector 1019  RSUExampleScenario.node[77].veinsmobility  posx  ETV
1019	6298685 9837 2 3243636 0.1 29.9 299 1904.8425223648 1924.5788764733 573472.88583438 1099919185.1241
vector 1020  RSUExampleScenario.node[77].veinsmobility  posy  ETV
1020	6288852 9833 2 3243636 0.1 29.9 299 572.37661964334 749.74584404499 190039.92599994 121961892.7784
vector 1032  RSUExampleScenario.node[78].veinsmobility  posx  ETV
1032	6356374 9826 2 3243636 0.1 29.9 299 1689.8528593258 1700.2102708567 507057.60115091 859894001.504
vector 1033  RSUExampleScenario.node[78].veinsmobility  posy  ETV
1033	6346546 9828 2 3243636 0.1 29.9 299 1104.4373364531 1205.320189693 349802.26021523 409621562.57323
vector 1045  RSUExampleScenario.node[79].veinsmobility  posx  ETV
1045	6412756 9834 2 3243636 0.1 29.9 299 2118.0111339394 2310.5657614351 652411.69938918 1424170356.8686
vector 1046  RSUExampleScenario.node[79].veinsmobility  posy  ETV
1046	6402927 9829 2 3243636 0.1 29.9 299 463.38550702798 584.22957627882 162124.01217345 88524822.143316
vector 1058  RSUExampleScenario.node[80].veinsmobility  posx  ETV
1058	6480153 9829 2 3243636 0.1 29.9 299 1210.2175758319 1262.6837847952 364527.01469059 444497433.27298
vector 1059  RSUExampleScenario.node[80].veinsmobility  posy  ETV
1059	6470319 9834 2 3243636 0.1 29.9 299 1232.4733547985 1234.5275557164 369015.71143123 455426868.0207
vector 1071  RSUExampleScenario.node[81].veinsmobility  posx  ETV
1071	6542628 9837 2 3243636 0.1 29.9 299 1577.1881472712 1643.6318980078 480552.79173586 772475377.07319
vector 1072  RSUExampleScenario.node[81].veinsmobility  posy  ETV
1072	6532798 9830 2 3243636 0.1 29.9 299 56.881035976561 415.2520652283 64691.874233144 17739854.743173
vector 1084  RSUExampleScenario.node[82].veinsmobility  posx  ETV
1084	6595571 9838 2 3243636 0.1 29.9 299 1112.0780257703 1180.291803377 342203.00706042 391756390.29277
vector 1085  RSUExampleScenario.node[82].veinsmobility  posy  ETV
1085	6585742 9829 2 3243636 0.1 29.9 299 1146.5739270382 1167.3765507139 345442.69130224 399120138.09823
vector 1097  RSUExampleScenario.node[83].veinsmobility  posx  ETV
1097	6693573 9821 2 3243636 0.1 29.9 299 1374.18 1468.9458616003 430679.84535471 620647009.70418
vector 1098  RSUExampleScenario.node[83].veinsmobility  posy  ETV
1098	6683760 9813 2 3243636 0.1 29.9 299 876.2165050471 1053.95 299663.27309057 301459647.87849
vector 1110  RSUExampleScenario.node[84].veinsmobility  posx  ETV
1110	6760304 9830 2 3243636 0.1 29.9 299 1182.2035013546 1303.3968556678 372227.41871561 464207248.292
vector 1111  RSUExampleScenario.node[84].veinsmobility  posy  ETV
1111	6750469 9835 2 3243636 0.1 29.9 299 793.46898443125 948.32999753609 261080.8063981 228703274.2405
vector 1123  RSUExampleScenario.node[85].veinsmobility  posx  ETV
1123	6814122 9835 2 3243636 0.1 29.9 299 2506.7360323396 2721.7363959903 787622.89465339 2076600392.9548
vector 1124  RSUExampleScenario.node[85].veinsmobility  posy  ETV
1124	6804292 9830 2 3243636 0.1 29.9 299 1115.702209194 1234.5016580725 349665.84878576 409524768.32198
vector 1136  RSUExampleScenario.node[86].veinsmobility  posx  ETV
1136	6864738 9822 2 3243636 0.1 29.9 299 2633.2434650761 2730.75 801884.95091174 2150701446.9022
vector 1137  RSUExampleScenario.node[86].veinsmobility  posy  ETV
1137	6854907 9831 2 3243636 0.1 29.9 299 1240.587816732 1362.1736510882 391471.68702016 513251525.64315
vector 1149  RSUExampleScenario.node[87].veinsmobility  posx  ETV
1149	6975954 9828 2 3243636 0.1 29.9 299 1148.3961491031 1325.4742936758 365829.47423006 448439929.33186
vector 1150  RSUExampleScenario.node[87].veinsmobility  posy  ETV